VARIABLES  = "X","Y","Z", "PRESSURE1"
ZONE T="0.000000000000e+000s", N=1681, E=1600, F=FEPOINT, ET=QUADRILATERAL
STRANDID=1, SOLUTIONTIME=0.000000000000e+000
0.000000000000e+000 0.000000000000e+000 0.000000000000e+000 1.013250000000e+005 
5.000000000000e-002 0.000000000000e+000 0.000000000000e+000 1.013250000000e+005 
5.000000000000e-002 0.000000000000e+000 2.500000000000e-002 1.013250000000e+005 
0.000000000000e+000 0.000000000000e+000 2.500000000000e-002 1.013250000000e+005 
5.000000000000e-002 0.000000000000e+000 5.000000000000e-002 1.013250000000e+005 
0.000000000000e+000 0.000000000000e+000 5.000000000000e-002 1.013250000000e+005 
5.000000000000e-002 0.000000000000e+000 7.500000000000e-002 1.013250000000e+005 
0.000000000000e+000 0.000000000000e+000 7.500000000000e-002 1.013250000000e+005 
5.000000000000e-002 0.000000000000e+000 1.000000000000e-001 1.013250000000e+005 
0.000000000000e+000 0.000000000000e+000 1.000000000000e-001 1.013250000000e+005 
5.000000000000e-002 0.000000000000e+000 1.250000000000e-001 1.013250000000e+005 
0.000000000000e+000 0.000000000000e+000 1.250000000000e-001 1.013250000000e+005 
5.000000000000e-002 0.000000000000e+000 1.500000000000e-001 1.013250000000e+005 
0.000000000000e+000 0.000000000000e+000 1.500000000000e-001 1.013250000000e+005 
5.000000000000e-002 0.000000000000e+000 1.750000000000e-001 1.013250000000e+005 
0.000000000000e+000 0.000000000000e+000 1.750000000000e-001 1.013250000000e+005 
5.000000000000e-002 0.000000000000e+000 2.000000000000e-001 1.013250000000e+005 
0.000000000000e+000 0.000000000000e+000 2.000000000000e-001 1.013250000000e+005 
5.000000000000e-002 0.000000000000e+000 2.250000000000e-001 1.013250000000e+005 
0.000000000000e+000 0.000000000000e+000 2.250000000000e-001 1.013250000000e+005 
5.000000000000e-002 0.000000000000e+000 2.500000000000e-001 1.013250000000e+005 
0.000000000000e+000 0.000000000000e+000 2.500000000000e-001 1.013250000000e+005 
5.000000000000e-002 0.000000000000e+000 2.750000000000e-001 1.013250000000e+005 
0.000000000000e+000 0.000000000000e+000 2.750000000000e-001 1.013250000000e+005 
5.000000000000e-002 0.000000000000e+000 3.000000000000e-001 1.013250000000e+005 
0.000000000000e+000 0.000000000000e+000 3.000000000000e-001 1.013250000000e+005 
5.000000000000e-002 0.000000000000e+000 3.250000000000e-001 1.013250000000e+005 
0.000000000000e+000 0.000000000000e+000 3.250000000000e-001 1.013250000000e+005 
5.000000000000e-002 0.000000000000e+000 3.500000000000e-001 1.013250000000e+005 
0.000000000000e+000 0.000000000000e+000 3.500000000000e-001 1.013250000000e+005 
5.000000000000e-002 0.000000000000e+000 3.750000000000e-001 1.013250000000e+005 
0.000000000000e+000 0.000000000000e+000 3.750000000000e-001 1.013250000000e+005 
5.000000000000e-002 0.000000000000e+000 4.000000000000e-001 1.013250000000e+005 
0.000000000000e+000 0.000000000000e+000 4.000000000000e-001 1.013250000000e+005 
5.000000000000e-002 0.000000000000e+000 4.250000000000e-001 1.013250000000e+005 
0.000000000000e+000 0.000000000000e+000 4.250000000000e-001 1.013250000000e+005 
5.000000000000e-002 0.000000000000e+000 4.500000000000e-001 1.013250000000e+005 
0.000000000000e+000 0.000000000000e+000 4.500000000000e-001 1.013250000000e+005 
5.000000000000e-002 0.000000000000e+000 4.750000000000e-001 1.013250000000e+005 
0.000000000000e+000 0.000000000000e+000 4.750000000000e-001 1.013250000000e+005 
5.000000000000e-002 0.000000000000e+000 5.000000000000e-001 1.013250000000e+005 
0.000000000000e+000 0.000000000000e+000 5.000000000000e-001 1.013250000000e+005 
5.000000000000e-002 0.000000000000e+000 5.250000000000e-001 1.013250000000e+005 
0.000000000000e+000 0.000000000000e+000 5.250000000000e-001 1.013250000000e+005 
5.000000000000e-002 0.000000000000e+000 5.500000000000e-001 1.013250000000e+005 
0.000000000000e+000 0.000000000000e+000 5.500000000000e-001 1.013250000000e+005 
5.000000000000e-002 0.000000000000e+000 5.750000000000e-001 1.013250000000e+005 
0.000000000000e+000 0.000000000000e+000 5.750000000000e-001 1.013250000000e+005 
5.000000000000e-002 0.000000000000e+000 6.000000000000e-001 1.013250000000e+005 
0.000000000000e+000 0.000000000000e+000 6.000000000000e-001 1.013250000000e+005 
5.000000000000e-002 0.000000000000e+000 6.250000000000e-001 1.013250000000e+005 
0.000000000000e+000 0.000000000000e+000 6.250000000000e-001 1.013250000000e+005 
5.000000000000e-002 0.000000000000e+000 6.500000000000e-001 1.013250000000e+005 
0.000000000000e+000 0.000000000000e+000 6.500000000000e-001 1.013250000000e+005 
5.000000000000e-002 0.000000000000e+000 6.750000000000e-001 1.013250000000e+005 
0.000000000000e+000 0.000000000000e+000 6.750000000000e-001 1.013250000000e+005 
5.000000000000e-002 0.000000000000e+000 7.000000000000e-001 1.013250000000e+005 
0.000000000000e+000 0.000000000000e+000 7.000000000000e-001 1.013250000000e+005 
5.000000000000e-002 0.000000000000e+000 7.250000000000e-001 1.013250000000e+005 
0.000000000000e+000 0.000000000000e+000 7.250000000000e-001 1.013250000000e+005 
5.000000000000e-002 0.000000000000e+000 7.500000000000e-001 1.013250000000e+005 
0.000000000000e+000 0.000000000000e+000 7.500000000000e-001 1.013250000000e+005 
5.000000000000e-002 0.000000000000e+000 7.750000000000e-001 1.013250000000e+005 
0.000000000000e+000 0.000000000000e+000 7.750000000000e-001 1.013250000000e+005 
5.000000000000e-002 0.000000000000e+000 8.000000000000e-001 1.013250000000e+005 
0.000000000000e+000 0.000000000000e+000 8.000000000000e-001 1.013250000000e+005 
5.000000000000e-002 0.000000000000e+000 8.250000000000e-001 1.013250000000e+005 
0.000000000000e+000 0.000000000000e+000 8.250000000000e-001 1.013250000000e+005 
5.000000000000e-002 0.000000000000e+000 8.500000000000e-001 1.013250000000e+005 
0.000000000000e+000 0.000000000000e+000 8.500000000000e-001 1.013250000000e+005 
5.000000000000e-002 0.000000000000e+000 8.750000000000e-001 1.013250000000e+005 
0.000000000000e+000 0.000000000000e+000 8.750000000000e-001 1.013250000000e+005 
5.000000000000e-002 0.000000000000e+000 9.000000000000e-001 1.013250000000e+005 
0.000000000000e+000 0.000000000000e+000 9.000000000000e-001 1.013250000000e+005 
5.000000000000e-002 0.000000000000e+000 9.250000000000e-001 1.013250000000e+005 
0.000000000000e+000 0.000000000000e+000 9.250000000000e-001 1.013250000000e+005 
5.000000000000e-002 0.000000000000e+000 9.500000000000e-001 1.013250000000e+005 
0.000000000000e+000 0.000000000000e+000 9.500000000000e-001 1.013250000000e+005 
5.000000000000e-002 0.000000000000e+000 9.750000000000e-001 1.013250000000e+005 
0.000000000000e+000 0.000000000000e+000 9.750000000000e-001 1.013250000000e+005 
5.000000000000e-002 0.000000000000e+000 1.000000000000e+000 1.013250000000e+005 
0.000000000000e+000 0.000000000000e+000 1.000000000000e+000 1.013250000000e+005 
1.000000000000e-001 0.000000000000e+000 0.000000000000e+000 1.013250000000e+005 
1.000000000000e-001 0.000000000000e+000 2.500000000000e-002 1.013250000000e+005 
1.000000000000e-001 0.000000000000e+000 5.000000000000e-002 1.013250000000e+005 
1.000000000000e-001 0.000000000000e+000 7.500000000000e-002 1.013250000000e+005 
1.000000000000e-001 0.000000000000e+000 1.000000000000e-001 1.013250000000e+005 
1.000000000000e-001 0.000000000000e+000 1.250000000000e-001 1.013250000000e+005 
1.000000000000e-001 0.000000000000e+000 1.500000000000e-001 1.013250000000e+005 
1.000000000000e-001 0.000000000000e+000 1.750000000000e-001 1.013250000000e+005 
1.000000000000e-001 0.000000000000e+000 2.000000000000e-001 1.013250000000e+005 
1.000000000000e-001 0.000000000000e+000 2.250000000000e-001 1.013250000000e+005 
1.000000000000e-001 0.000000000000e+000 2.500000000000e-001 1.013250000000e+005 
1.000000000000e-001 0.000000000000e+000 2.750000000000e-001 1.013250000000e+005 
1.000000000000e-001 0.000000000000e+000 3.000000000000e-001 1.013250000000e+005 
1.000000000000e-001 0.000000000000e+000 3.250000000000e-001 1.013250000000e+005 
1.000000000000e-001 0.000000000000e+000 3.500000000000e-001 1.013250000000e+005 
1.000000000000e-001 0.000000000000e+000 3.750000000000e-001 1.013250000000e+005 
1.000000000000e-001 0.000000000000e+000 4.000000000000e-001 1.013250000000e+005 
1.000000000000e-001 0.000000000000e+000 4.250000000000e-001 1.013250000000e+005 
1.000000000000e-001 0.000000000000e+000 4.500000000000e-001 1.013250000000e+005 
1.000000000000e-001 0.000000000000e+000 4.750000000000e-001 1.013250000000e+005 
1.000000000000e-001 0.000000000000e+000 5.000000000000e-001 1.013250000000e+005 
1.000000000000e-001 0.000000000000e+000 5.250000000000e-001 1.013250000000e+005 
1.000000000000e-001 0.000000000000e+000 5.500000000000e-001 1.013250000000e+005 
1.000000000000e-001 0.000000000000e+000 5.750000000000e-001 1.013250000000e+005 
1.000000000000e-001 0.000000000000e+000 6.000000000000e-001 1.013250000000e+005 
1.000000000000e-001 0.000000000000e+000 6.250000000000e-001 1.013250000000e+005 
1.000000000000e-001 0.000000000000e+000 6.500000000000e-001 1.013250000000e+005 
1.000000000000e-001 0.000000000000e+000 6.750000000000e-001 1.013250000000e+005 
1.000000000000e-001 0.000000000000e+000 7.000000000000e-001 1.013250000000e+005 
1.000000000000e-001 0.000000000000e+000 7.250000000000e-001 1.013250000000e+005 
1.000000000000e-001 0.000000000000e+000 7.500000000000e-001 1.013250000000e+005 
1.000000000000e-001 0.000000000000e+000 7.750000000000e-001 1.013250000000e+005 
1.000000000000e-001 0.000000000000e+000 8.000000000000e-001 1.013250000000e+005 
1.000000000000e-001 0.000000000000e+000 8.250000000000e-001 1.013250000000e+005 
1.000000000000e-001 0.000000000000e+000 8.500000000000e-001 1.013250000000e+005 
1.000000000000e-001 0.000000000000e+000 8.750000000000e-001 1.013250000000e+005 
1.000000000000e-001 0.000000000000e+000 9.000000000000e-001 1.013250000000e+005 
1.000000000000e-001 0.000000000000e+000 9.250000000000e-001 1.013250000000e+005 
1.000000000000e-001 0.000000000000e+000 9.500000000000e-001 1.013250000000e+005 
1.000000000000e-001 0.000000000000e+000 9.750000000000e-001 1.013250000000e+005 
1.000000000000e-001 0.000000000000e+000 1.000000000000e+000 1.013250000000e+005 
1.500000000000e-001 0.000000000000e+000 0.000000000000e+000 1.013250000000e+005 
1.500000000000e-001 0.000000000000e+000 2.500000000000e-002 1.013250000000e+005 
1.500000000000e-001 0.000000000000e+000 5.000000000000e-002 1.013250000000e+005 
1.500000000000e-001 0.000000000000e+000 7.500000000000e-002 1.013250000000e+005 
1.500000000000e-001 0.000000000000e+000 1.000000000000e-001 1.013250000000e+005 
1.500000000000e-001 0.000000000000e+000 1.250000000000e-001 1.013250000000e+005 
1.500000000000e-001 0.000000000000e+000 1.500000000000e-001 1.013250000000e+005 
1.500000000000e-001 0.000000000000e+000 1.750000000000e-001 1.013250000000e+005 
1.500000000000e-001 0.000000000000e+000 2.000000000000e-001 1.013250000000e+005 
1.500000000000e-001 0.000000000000e+000 2.250000000000e-001 1.013250000000e+005 
1.500000000000e-001 0.000000000000e+000 2.500000000000e-001 1.013250000000e+005 
1.500000000000e-001 0.000000000000e+000 2.750000000000e-001 1.013250000000e+005 
1.500000000000e-001 0.000000000000e+000 3.000000000000e-001 1.013250000000e+005 
1.500000000000e-001 0.000000000000e+000 3.250000000000e-001 1.013250000000e+005 
1.500000000000e-001 0.000000000000e+000 3.500000000000e-001 1.013250000000e+005 
1.500000000000e-001 0.000000000000e+000 3.750000000000e-001 1.013250000000e+005 
1.500000000000e-001 0.000000000000e+000 4.000000000000e-001 1.013250000000e+005 
1.500000000000e-001 0.000000000000e+000 4.250000000000e-001 1.013250000000e+005 
1.500000000000e-001 0.000000000000e+000 4.500000000000e-001 1.013250000000e+005 
1.500000000000e-001 0.000000000000e+000 4.750000000000e-001 1.013250000000e+005 
1.500000000000e-001 0.000000000000e+000 5.000000000000e-001 1.013250000000e+005 
1.500000000000e-001 0.000000000000e+000 5.250000000000e-001 1.013250000000e+005 
1.500000000000e-001 0.000000000000e+000 5.500000000000e-001 1.013250000000e+005 
1.500000000000e-001 0.000000000000e+000 5.750000000000e-001 1.013250000000e+005 
1.500000000000e-001 0.000000000000e+000 6.000000000000e-001 1.013250000000e+005 
1.500000000000e-001 0.000000000000e+000 6.250000000000e-001 1.013250000000e+005 
1.500000000000e-001 0.000000000000e+000 6.500000000000e-001 1.013250000000e+005 
1.500000000000e-001 0.000000000000e+000 6.750000000000e-001 1.013250000000e+005 
1.500000000000e-001 0.000000000000e+000 7.000000000000e-001 1.013250000000e+005 
1.500000000000e-001 0.000000000000e+000 7.250000000000e-001 1.013250000000e+005 
1.500000000000e-001 0.000000000000e+000 7.500000000000e-001 1.013250000000e+005 
1.500000000000e-001 0.000000000000e+000 7.750000000000e-001 1.013250000000e+005 
1.500000000000e-001 0.000000000000e+000 8.000000000000e-001 1.013250000000e+005 
1.500000000000e-001 0.000000000000e+000 8.250000000000e-001 1.013250000000e+005 
1.500000000000e-001 0.000000000000e+000 8.500000000000e-001 1.013250000000e+005 
1.500000000000e-001 0.000000000000e+000 8.750000000000e-001 1.013250000000e+005 
1.500000000000e-001 0.000000000000e+000 9.000000000000e-001 1.013250000000e+005 
1.500000000000e-001 0.000000000000e+000 9.250000000000e-001 1.013250000000e+005 
1.500000000000e-001 0.000000000000e+000 9.500000000000e-001 1.013250000000e+005 
1.500000000000e-001 0.000000000000e+000 9.750000000000e-001 1.013250000000e+005 
1.500000000000e-001 0.000000000000e+000 1.000000000000e+000 1.013250000000e+005 
2.000000000000e-001 0.000000000000e+000 0.000000000000e+000 1.013250000000e+005 
2.000000000000e-001 0.000000000000e+000 2.500000000000e-002 1.013250000000e+005 
2.000000000000e-001 0.000000000000e+000 5.000000000000e-002 1.013250000000e+005 
2.000000000000e-001 0.000000000000e+000 7.500000000000e-002 1.013250000000e+005 
2.000000000000e-001 0.000000000000e+000 1.000000000000e-001 1.013250000000e+005 
2.000000000000e-001 0.000000000000e+000 1.250000000000e-001 1.013250000000e+005 
2.000000000000e-001 0.000000000000e+000 1.500000000000e-001 1.013250000000e+005 
2.000000000000e-001 0.000000000000e+000 1.750000000000e-001 1.013250000000e+005 
2.000000000000e-001 0.000000000000e+000 2.000000000000e-001 1.013250000000e+005 
2.000000000000e-001 0.000000000000e+000 2.250000000000e-001 1.013250000000e+005 
2.000000000000e-001 0.000000000000e+000 2.500000000000e-001 1.013250000000e+005 
2.000000000000e-001 0.000000000000e+000 2.750000000000e-001 1.013250000000e+005 
2.000000000000e-001 0.000000000000e+000 3.000000000000e-001 1.013250000000e+005 
2.000000000000e-001 0.000000000000e+000 3.250000000000e-001 1.013250000000e+005 
2.000000000000e-001 0.000000000000e+000 3.500000000000e-001 1.013250000000e+005 
2.000000000000e-001 0.000000000000e+000 3.750000000000e-001 1.013250000000e+005 
2.000000000000e-001 0.000000000000e+000 4.000000000000e-001 1.013250000000e+005 
2.000000000000e-001 0.000000000000e+000 4.250000000000e-001 1.013250000000e+005 
2.000000000000e-001 0.000000000000e+000 4.500000000000e-001 1.013250000000e+005 
2.000000000000e-001 0.000000000000e+000 4.750000000000e-001 1.013250000000e+005 
2.000000000000e-001 0.000000000000e+000 5.000000000000e-001 1.013250000000e+005 
2.000000000000e-001 0.000000000000e+000 5.250000000000e-001 1.013250000000e+005 
2.000000000000e-001 0.000000000000e+000 5.500000000000e-001 1.013250000000e+005 
2.000000000000e-001 0.000000000000e+000 5.750000000000e-001 1.013250000000e+005 
2.000000000000e-001 0.000000000000e+000 6.000000000000e-001 1.013250000000e+005 
2.000000000000e-001 0.000000000000e+000 6.250000000000e-001 1.013250000000e+005 
2.000000000000e-001 0.000000000000e+000 6.500000000000e-001 1.013250000000e+005 
2.000000000000e-001 0.000000000000e+000 6.750000000000e-001 1.013250000000e+005 
2.000000000000e-001 0.000000000000e+000 7.000000000000e-001 1.013250000000e+005 
2.000000000000e-001 0.000000000000e+000 7.250000000000e-001 1.013250000000e+005 
2.000000000000e-001 0.000000000000e+000 7.500000000000e-001 1.013250000000e+005 
2.000000000000e-001 0.000000000000e+000 7.750000000000e-001 1.013250000000e+005 
2.000000000000e-001 0.000000000000e+000 8.000000000000e-001 1.013250000000e+005 
2.000000000000e-001 0.000000000000e+000 8.250000000000e-001 1.013250000000e+005 
2.000000000000e-001 0.000000000000e+000 8.500000000000e-001 1.013250000000e+005 
2.000000000000e-001 0.000000000000e+000 8.750000000000e-001 1.013250000000e+005 
2.000000000000e-001 0.000000000000e+000 9.000000000000e-001 1.013250000000e+005 
2.000000000000e-001 0.000000000000e+000 9.250000000000e-001 1.013250000000e+005 
2.000000000000e-001 0.000000000000e+000 9.500000000000e-001 1.013250000000e+005 
2.000000000000e-001 0.000000000000e+000 9.750000000000e-001 1.013250000000e+005 
2.000000000000e-001 0.000000000000e+000 1.000000000000e+000 1.013250000000e+005 
2.500000000000e-001 0.000000000000e+000 0.000000000000e+000 1.013250000000e+005 
2.500000000000e-001 0.000000000000e+000 2.500000000000e-002 1.013250000000e+005 
2.500000000000e-001 0.000000000000e+000 5.000000000000e-002 1.013250000000e+005 
2.500000000000e-001 0.000000000000e+000 7.500000000000e-002 1.013250000000e+005 
2.500000000000e-001 0.000000000000e+000 1.000000000000e-001 1.013250000000e+005 
2.500000000000e-001 0.000000000000e+000 1.250000000000e-001 1.013250000000e+005 
2.500000000000e-001 0.000000000000e+000 1.500000000000e-001 1.013250000000e+005 
2.500000000000e-001 0.000000000000e+000 1.750000000000e-001 1.013250000000e+005 
2.500000000000e-001 0.000000000000e+000 2.000000000000e-001 1.013250000000e+005 
2.500000000000e-001 0.000000000000e+000 2.250000000000e-001 1.013250000000e+005 
2.500000000000e-001 0.000000000000e+000 2.500000000000e-001 1.013250000000e+005 
2.500000000000e-001 0.000000000000e+000 2.750000000000e-001 1.013250000000e+005 
2.500000000000e-001 0.000000000000e+000 3.000000000000e-001 1.013250000000e+005 
2.500000000000e-001 0.000000000000e+000 3.250000000000e-001 1.013250000000e+005 
2.500000000000e-001 0.000000000000e+000 3.500000000000e-001 1.013250000000e+005 
2.500000000000e-001 0.000000000000e+000 3.750000000000e-001 1.013250000000e+005 
2.500000000000e-001 0.000000000000e+000 4.000000000000e-001 1.013250000000e+005 
2.500000000000e-001 0.000000000000e+000 4.250000000000e-001 1.013250000000e+005 
2.500000000000e-001 0.000000000000e+000 4.500000000000e-001 1.013250000000e+005 
2.500000000000e-001 0.000000000000e+000 4.750000000000e-001 1.013250000000e+005 
2.500000000000e-001 0.000000000000e+000 5.000000000000e-001 1.013250000000e+005 
2.500000000000e-001 0.000000000000e+000 5.250000000000e-001 1.013250000000e+005 
2.500000000000e-001 0.000000000000e+000 5.500000000000e-001 1.013250000000e+005 
2.500000000000e-001 0.000000000000e+000 5.750000000000e-001 1.013250000000e+005 
2.500000000000e-001 0.000000000000e+000 6.000000000000e-001 1.013250000000e+005 
2.500000000000e-001 0.000000000000e+000 6.250000000000e-001 1.013250000000e+005 
2.500000000000e-001 0.000000000000e+000 6.500000000000e-001 1.013250000000e+005 
2.500000000000e-001 0.000000000000e+000 6.750000000000e-001 1.013250000000e+005 
2.500000000000e-001 0.000000000000e+000 7.000000000000e-001 1.013250000000e+005 
2.500000000000e-001 0.000000000000e+000 7.250000000000e-001 1.013250000000e+005 
2.500000000000e-001 0.000000000000e+000 7.500000000000e-001 1.013250000000e+005 
2.500000000000e-001 0.000000000000e+000 7.750000000000e-001 1.013250000000e+005 
2.500000000000e-001 0.000000000000e+000 8.000000000000e-001 1.013250000000e+005 
2.500000000000e-001 0.000000000000e+000 8.250000000000e-001 1.013250000000e+005 
2.500000000000e-001 0.000000000000e+000 8.500000000000e-001 1.013250000000e+005 
2.500000000000e-001 0.000000000000e+000 8.750000000000e-001 1.013250000000e+005 
2.500000000000e-001 0.000000000000e+000 9.000000000000e-001 1.013250000000e+005 
2.500000000000e-001 0.000000000000e+000 9.250000000000e-001 1.013250000000e+005 
2.500000000000e-001 0.000000000000e+000 9.500000000000e-001 1.013250000000e+005 
2.500000000000e-001 0.000000000000e+000 9.750000000000e-001 1.013250000000e+005 
2.500000000000e-001 0.000000000000e+000 1.000000000000e+000 1.013250000000e+005 
3.000000000000e-001 0.000000000000e+000 0.000000000000e+000 1.013250000000e+005 
3.000000000000e-001 0.000000000000e+000 2.500000000000e-002 1.013250000000e+005 
3.000000000000e-001 0.000000000000e+000 5.000000000000e-002 1.013250000000e+005 
3.000000000000e-001 0.000000000000e+000 7.500000000000e-002 1.013250000000e+005 
3.000000000000e-001 0.000000000000e+000 1.000000000000e-001 1.013250000000e+005 
3.000000000000e-001 0.000000000000e+000 1.250000000000e-001 1.013250000000e+005 
3.000000000000e-001 0.000000000000e+000 1.500000000000e-001 1.013250000000e+005 
3.000000000000e-001 0.000000000000e+000 1.750000000000e-001 1.013250000000e+005 
3.000000000000e-001 0.000000000000e+000 2.000000000000e-001 1.013250000000e+005 
3.000000000000e-001 0.000000000000e+000 2.250000000000e-001 1.013250000000e+005 
3.000000000000e-001 0.000000000000e+000 2.500000000000e-001 1.013250000000e+005 
3.000000000000e-001 0.000000000000e+000 2.750000000000e-001 1.013250000000e+005 
3.000000000000e-001 0.000000000000e+000 3.000000000000e-001 1.013250000000e+005 
3.000000000000e-001 0.000000000000e+000 3.250000000000e-001 1.013250000000e+005 
3.000000000000e-001 0.000000000000e+000 3.500000000000e-001 1.013250000000e+005 
3.000000000000e-001 0.000000000000e+000 3.750000000000e-001 1.013250000000e+005 
3.000000000000e-001 0.000000000000e+000 4.000000000000e-001 1.013250000000e+005 
3.000000000000e-001 0.000000000000e+000 4.250000000000e-001 1.013250000000e+005 
3.000000000000e-001 0.000000000000e+000 4.500000000000e-001 1.013250000000e+005 
3.000000000000e-001 0.000000000000e+000 4.750000000000e-001 1.013250000000e+005 
3.000000000000e-001 0.000000000000e+000 5.000000000000e-001 1.013250000000e+005 
3.000000000000e-001 0.000000000000e+000 5.250000000000e-001 1.013250000000e+005 
3.000000000000e-001 0.000000000000e+000 5.500000000000e-001 1.013250000000e+005 
3.000000000000e-001 0.000000000000e+000 5.750000000000e-001 1.013250000000e+005 
3.000000000000e-001 0.000000000000e+000 6.000000000000e-001 1.013250000000e+005 
3.000000000000e-001 0.000000000000e+000 6.250000000000e-001 1.013250000000e+005 
3.000000000000e-001 0.000000000000e+000 6.500000000000e-001 1.013250000000e+005 
3.000000000000e-001 0.000000000000e+000 6.750000000000e-001 1.013250000000e+005 
3.000000000000e-001 0.000000000000e+000 7.000000000000e-001 1.013250000000e+005 
3.000000000000e-001 0.000000000000e+000 7.250000000000e-001 1.013250000000e+005 
3.000000000000e-001 0.000000000000e+000 7.500000000000e-001 1.013250000000e+005 
3.000000000000e-001 0.000000000000e+000 7.750000000000e-001 1.013250000000e+005 
3.000000000000e-001 0.000000000000e+000 8.000000000000e-001 1.013250000000e+005 
3.000000000000e-001 0.000000000000e+000 8.250000000000e-001 1.013250000000e+005 
3.000000000000e-001 0.000000000000e+000 8.500000000000e-001 1.013250000000e+005 
3.000000000000e-001 0.000000000000e+000 8.750000000000e-001 1.013250000000e+005 
3.000000000000e-001 0.000000000000e+000 9.000000000000e-001 1.013250000000e+005 
3.000000000000e-001 0.000000000000e+000 9.250000000000e-001 1.013250000000e+005 
3.000000000000e-001 0.000000000000e+000 9.500000000000e-001 1.013250000000e+005 
3.000000000000e-001 0.000000000000e+000 9.750000000000e-001 1.013250000000e+005 
3.000000000000e-001 0.000000000000e+000 1.000000000000e+000 1.013250000000e+005 
3.500000000000e-001 0.000000000000e+000 0.000000000000e+000 1.013250000000e+005 
3.500000000000e-001 0.000000000000e+000 2.500000000000e-002 1.013250000000e+005 
3.500000000000e-001 0.000000000000e+000 5.000000000000e-002 1.013250000000e+005 
3.500000000000e-001 0.000000000000e+000 7.500000000000e-002 1.013250000000e+005 
3.500000000000e-001 0.000000000000e+000 1.000000000000e-001 1.013250000000e+005 
3.500000000000e-001 0.000000000000e+000 1.250000000000e-001 1.013250000000e+005 
3.500000000000e-001 0.000000000000e+000 1.500000000000e-001 1.013250000000e+005 
3.500000000000e-001 0.000000000000e+000 1.750000000000e-001 1.013250000000e+005 
3.500000000000e-001 0.000000000000e+000 2.000000000000e-001 1.013250000000e+005 
3.500000000000e-001 0.000000000000e+000 2.250000000000e-001 1.013250000000e+005 
3.500000000000e-001 0.000000000000e+000 2.500000000000e-001 1.013250000000e+005 
3.500000000000e-001 0.000000000000e+000 2.750000000000e-001 1.013250000000e+005 
3.500000000000e-001 0.000000000000e+000 3.000000000000e-001 1.013250000000e+005 
3.500000000000e-001 0.000000000000e+000 3.250000000000e-001 1.013250000000e+005 
3.500000000000e-001 0.000000000000e+000 3.500000000000e-001 1.013250000000e+005 
3.500000000000e-001 0.000000000000e+000 3.750000000000e-001 1.013250000000e+005 
3.500000000000e-001 0.000000000000e+000 4.000000000000e-001 1.013250000000e+005 
3.500000000000e-001 0.000000000000e+000 4.250000000000e-001 1.013250000000e+005 
3.500000000000e-001 0.000000000000e+000 4.500000000000e-001 1.013250000000e+005 
3.500000000000e-001 0.000000000000e+000 4.750000000000e-001 1.013250000000e+005 
3.500000000000e-001 0.000000000000e+000 5.000000000000e-001 1.013250000000e+005 
3.500000000000e-001 0.000000000000e+000 5.250000000000e-001 1.013250000000e+005 
3.500000000000e-001 0.000000000000e+000 5.500000000000e-001 1.013250000000e+005 
3.500000000000e-001 0.000000000000e+000 5.750000000000e-001 1.013250000000e+005 
3.500000000000e-001 0.000000000000e+000 6.000000000000e-001 1.013250000000e+005 
3.500000000000e-001 0.000000000000e+000 6.250000000000e-001 1.013250000000e+005 
3.500000000000e-001 0.000000000000e+000 6.500000000000e-001 1.013250000000e+005 
3.500000000000e-001 0.000000000000e+000 6.750000000000e-001 1.013250000000e+005 
3.500000000000e-001 0.000000000000e+000 7.000000000000e-001 1.013250000000e+005 
3.500000000000e-001 0.000000000000e+000 7.250000000000e-001 1.013250000000e+005 
3.500000000000e-001 0.000000000000e+000 7.500000000000e-001 1.013250000000e+005 
3.500000000000e-001 0.000000000000e+000 7.750000000000e-001 1.013250000000e+005 
3.500000000000e-001 0.000000000000e+000 8.000000000000e-001 1.013250000000e+005 
3.500000000000e-001 0.000000000000e+000 8.250000000000e-001 1.013250000000e+005 
3.500000000000e-001 0.000000000000e+000 8.500000000000e-001 1.013250000000e+005 
3.500000000000e-001 0.000000000000e+000 8.750000000000e-001 1.013250000000e+005 
3.500000000000e-001 0.000000000000e+000 9.000000000000e-001 1.013250000000e+005 
3.500000000000e-001 0.000000000000e+000 9.250000000000e-001 1.013250000000e+005 
3.500000000000e-001 0.000000000000e+000 9.500000000000e-001 1.013250000000e+005 
3.500000000000e-001 0.000000000000e+000 9.750000000000e-001 1.013250000000e+005 
3.500000000000e-001 0.000000000000e+000 1.000000000000e+000 1.013250000000e+005 
4.000000000000e-001 0.000000000000e+000 0.000000000000e+000 1.013250000000e+005 
4.000000000000e-001 0.000000000000e+000 2.500000000000e-002 1.013250000000e+005 
4.000000000000e-001 0.000000000000e+000 5.000000000000e-002 1.013250000000e+005 
4.000000000000e-001 0.000000000000e+000 7.500000000000e-002 1.013250000000e+005 
4.000000000000e-001 0.000000000000e+000 1.000000000000e-001 1.013250000000e+005 
4.000000000000e-001 0.000000000000e+000 1.250000000000e-001 1.013250000000e+005 
4.000000000000e-001 0.000000000000e+000 1.500000000000e-001 1.013250000000e+005 
4.000000000000e-001 0.000000000000e+000 1.750000000000e-001 1.013250000000e+005 
4.000000000000e-001 0.000000000000e+000 2.000000000000e-001 1.013250000000e+005 
4.000000000000e-001 0.000000000000e+000 2.250000000000e-001 1.013250000000e+005 
4.000000000000e-001 0.000000000000e+000 2.500000000000e-001 1.013250000000e+005 
4.000000000000e-001 0.000000000000e+000 2.750000000000e-001 1.013250000000e+005 
4.000000000000e-001 0.000000000000e+000 3.000000000000e-001 1.013250000000e+005 
4.000000000000e-001 0.000000000000e+000 3.250000000000e-001 1.013250000000e+005 
4.000000000000e-001 0.000000000000e+000 3.500000000000e-001 1.013250000000e+005 
4.000000000000e-001 0.000000000000e+000 3.750000000000e-001 1.013250000000e+005 
4.000000000000e-001 0.000000000000e+000 4.000000000000e-001 1.013250000000e+005 
4.000000000000e-001 0.000000000000e+000 4.250000000000e-001 1.013250000000e+005 
4.000000000000e-001 0.000000000000e+000 4.500000000000e-001 1.013250000000e+005 
4.000000000000e-001 0.000000000000e+000 4.750000000000e-001 1.013250000000e+005 
4.000000000000e-001 0.000000000000e+000 5.000000000000e-001 1.013250000000e+005 
4.000000000000e-001 0.000000000000e+000 5.250000000000e-001 1.013250000000e+005 
4.000000000000e-001 0.000000000000e+000 5.500000000000e-001 1.013250000000e+005 
4.000000000000e-001 0.000000000000e+000 5.750000000000e-001 1.013250000000e+005 
4.000000000000e-001 0.000000000000e+000 6.000000000000e-001 1.013250000000e+005 
4.000000000000e-001 0.000000000000e+000 6.250000000000e-001 1.013250000000e+005 
4.000000000000e-001 0.000000000000e+000 6.500000000000e-001 1.013250000000e+005 
4.000000000000e-001 0.000000000000e+000 6.750000000000e-001 1.013250000000e+005 
4.000000000000e-001 0.000000000000e+000 7.000000000000e-001 1.013250000000e+005 
4.000000000000e-001 0.000000000000e+000 7.250000000000e-001 1.013250000000e+005 
4.000000000000e-001 0.000000000000e+000 7.500000000000e-001 1.013250000000e+005 
4.000000000000e-001 0.000000000000e+000 7.750000000000e-001 1.013250000000e+005 
4.000000000000e-001 0.000000000000e+000 8.000000000000e-001 1.013250000000e+005 
4.000000000000e-001 0.000000000000e+000 8.250000000000e-001 1.013250000000e+005 
4.000000000000e-001 0.000000000000e+000 8.500000000000e-001 1.013250000000e+005 
4.000000000000e-001 0.000000000000e+000 8.750000000000e-001 1.013250000000e+005 
4.000000000000e-001 0.000000000000e+000 9.000000000000e-001 1.013250000000e+005 
4.000000000000e-001 0.000000000000e+000 9.250000000000e-001 1.013250000000e+005 
4.000000000000e-001 0.000000000000e+000 9.500000000000e-001 1.013250000000e+005 
4.000000000000e-001 0.000000000000e+000 9.750000000000e-001 1.013250000000e+005 